REMARK  Name = /mnt/d/code/AA/temporary/peptide_9048acc9.pdb
REMARK  83 active torsions:
REMARK  status: ('A' for Active; 'I' for Inactive)
REMARK    1  A    between atoms: _1  and  _2
REMARK    2  A    between atoms: _4  and  _5
REMARK    3  A    between atoms: _5  and  _6
REMARK    4  A    between atoms: _8  and  _9
REMARK    5  A    between atoms: _9  and  _10
REMARK    6  A    between atoms: _9  and  _12
REMARK    7  A    between atoms: _10  and  _11
REMARK    8  A    between atoms: _14  and  _15
REMARK    9  A    between atoms: _15  and  _16
REMARK   10  A    between atoms: _15  and  _18
REMARK   11  A    between atoms: _16  and  _17
REMARK   12  A    between atoms: _20  and  _21
REMARK   13  A    between atoms: _21  and  _22
REMARK   14  A    between atoms: _21  and  _26
REMARK   15  A    between atoms: _22  and  _23
REMARK   16  A    between atoms: _22  and  _24
REMARK   17  A    between atoms: _24  and  _25
REMARK   18  A    between atoms: _28  and  _29
REMARK   19  A    between atoms: _29  and  _30
REMARK   20  A    between atoms: _29  and  _34
REMARK   21  A    between atoms: _30  and  _31
REMARK   22  A    between atoms: _31  and  _32
REMARK   23  A    between atoms: _31  and  _33
REMARK   24  A    between atoms: _36  and  _37
REMARK   25  A    between atoms: _37  and  _38
REMARK   26  A    between atoms: _37  and  _43
REMARK   27  A    between atoms: _38  and  _39
REMARK   28  A    between atoms: _39  and  _40
REMARK   29  A    between atoms: _40  and  _41
REMARK   30  A    between atoms: _41  and  _42
REMARK   31  A    between atoms: _45  and  _46
REMARK   32  A    between atoms: _46  and  _47
REMARK   33  A    between atoms: _46  and  _50
REMARK   34  A    between atoms: _47  and  _48
REMARK   35  A    between atoms: _47  and  _49
REMARK   36  A    between atoms: _52  and  _53
REMARK   37  A    between atoms: _53  and  _54
REMARK   38  A    between atoms: _53  and  _57
REMARK   39  A    between atoms: _54  and  _55
REMARK   40  A    between atoms: _54  and  _56
REMARK   41  A    between atoms: _59  and  _60
REMARK   42  A    between atoms: _60  and  _61
REMARK   43  A    between atoms: _60  and  _63
REMARK   44  A    between atoms: _61  and  _62
REMARK   45  A    between atoms: _65  and  _66
REMARK   46  A    between atoms: _66  and  _67
REMARK   47  A    between atoms: _66  and  _74
REMARK   48  A    between atoms: _67  and  _68
REMARK   49  A    between atoms: _68  and  _69
REMARK   50  A    between atoms: _69  and  _70
REMARK   51  A    between atoms: _76  and  _77
REMARK   52  A    between atoms: _77  and  _78
REMARK   53  A    between atoms: _77  and  _82
REMARK   54  A    between atoms: _78  and  _79
REMARK   55  A    between atoms: _79  and  _80
REMARK   56  A    between atoms: _79  and  _81
REMARK   57  A    between atoms: _84  and  _85
REMARK   58  A    between atoms: _85  and  _86
REMARK   59  A    between atoms: _85  and  _91
REMARK   60  A    between atoms: _86  and  _87
REMARK   61  A    between atoms: _87  and  _88
REMARK   62  A    between atoms: _93  and  _94
REMARK   63  A    between atoms: _94  and  _95
REMARK   64  A    between atoms: _94  and  _99
REMARK   65  A    between atoms: _95  and  _96
REMARK   66  A    between atoms: _96  and  _98
REMARK   67  A    between atoms: _101  and  _102
REMARK   68  A    between atoms: _102  and  _103
REMARK   69  A    between atoms: _102  and  _108
REMARK   70  A    between atoms: _103  and  _104
REMARK   71  A    between atoms: _104  and  _105
REMARK   72  A    between atoms: _105  and  _107
REMARK   73  A    between atoms: _110  and  _111
REMARK   74  A    between atoms: _111  and  _112
REMARK   75  A    between atoms: _111  and  _117
REMARK   76  A    between atoms: _112  and  _113
REMARK   77  A    between atoms: _113  and  _114
REMARK   78  A    between atoms: _119  and  _120
REMARK   79  A    between atoms: _120  and  _121
REMARK   80  A    between atoms: _120  and  _123
REMARK   81  A    between atoms: _121  and  _122
REMARK   82  A    between atoms: _125  and  _126
REMARK   83  A    between atoms: _126  and  _127
REMARK                            x       y       z     vdW  Elec       q    Type
REMARK                         _______ _______ _______ _____ _____    ______ ____
ROOT
ATOM      1  C   UNK A   2      -0.072   4.076  -1.365  0.00  0.00    +0.159 C 
ENDROOT
BRANCH   1   3
ATOM      2  C   UNK A   2      -0.182   2.634  -3.373  0.00  0.00    +0.235 C 
ATOM      3  N   UNK A   2      -0.505   3.810  -2.734  0.00  0.00    -0.302 N 
ATOM      4  H   UNK A   2      -0.846   4.606  -3.261  0.00  0.00    +0.150 H 
ATOM      5  O   UNK A   2       0.442   1.728  -2.820  0.00  0.00    -0.274 OA
BRANCH   2   6
ATOM      6  C   UNK A   2      -0.607   2.545  -4.855  0.00  0.00    +0.168 C 
BRANCH   6   8
ATOM      7  C   UNK A   2      -1.312   0.564  -6.220  0.00  0.00    +0.234 C 
ATOM      8  N   UNK A   2      -0.555   1.118  -5.225  0.00  0.00    -0.302 N 
ATOM      9  H   UNK A   2      -0.106   0.492  -4.565  0.00  0.00    +0.150 H 
ATOM     10  O   UNK A   2      -2.001   1.264  -6.963  0.00  0.00    -0.274 OA
BRANCH   7  11
ATOM     11  C   UNK A   2      -1.101  -0.944  -6.463  0.00  0.00    +0.161 C 
BRANCH  11  13
ATOM     12  C   UNK A   2      -1.479  -2.622  -4.675  0.00  0.00    +0.234 C 
ATOM     13  N   UNK A   2      -0.683  -1.629  -5.225  0.00  0.00    -0.302 N 
ATOM     14  H   UNK A   2       0.319  -1.783  -5.103  0.00  0.00    +0.150 H 
ATOM     15  O   UNK A   2      -2.514  -3.032  -5.187  0.00  0.00    -0.274 OA
BRANCH  12  16
ATOM     16  C   UNK A   2      -1.035  -3.083  -3.268  0.00  0.00    +0.161 C 
BRANCH  16  18
ATOM     17  C   UNK A   2      -0.397  -5.451  -3.644  0.00  0.00    +0.234 C 
ATOM     18  N   UNK A   2      -1.212  -4.516  -3.055  0.00  0.00    -0.302 N 
ATOM     19  H   UNK A   2      -2.105  -4.841  -2.687  0.00  0.00    +0.150 H 
ATOM     20  O   UNK A   2       0.442  -5.149  -4.497  0.00  0.00    -0.274 OA
BRANCH  17  21
ATOM     21  C   UNK A   2      -0.574  -6.894  -3.096  0.00  0.00    +0.159 C 
BRANCH  21  23
ATOM     22  C   UNK A   2      -0.864  -6.705  -0.628  0.00  0.00    +0.234 C 
ATOM     23  N   UNK A   2      -0.051  -6.935  -1.713  0.00  0.00    -0.302 N 
ATOM     24  H   UNK A   2       0.927  -6.711  -1.616  0.00  0.00    +0.150 H 
ATOM     25  O   UNK A   2      -2.065  -6.470  -0.769  0.00  0.00    -0.274 OA
BRANCH  22  26
ATOM     26  C   UNK A   2      -0.217  -6.825   0.777  0.00  0.00    +0.159 C 
BRANCH  26  28
ATOM     27  C   UNK A   2      -1.187  -6.631   3.105  0.00  0.00    +0.234 C 
ATOM     28  N   UNK A   2      -1.301  -6.512   1.728  0.00  0.00    -0.302 N 
ATOM     29  H   UNK A   2      -2.207  -6.790   1.363  0.00  0.00    +0.150 H 
ATOM     30  O   UNK A   2      -0.173  -7.070   3.654  0.00  0.00    -0.274 OA
BRANCH  27  31
ATOM     31  C   UNK A   2      -2.398  -6.084   3.912  0.00  0.00    +0.162 C 
BRANCH  31  33
ATOM     32  C   UNK A   2      -4.827  -5.656   3.356  0.00  0.00    +0.236 C 
ATOM     33  N   UNK A   2      -3.487  -5.708   2.993  0.00  0.00    -0.302 N 
ATOM     34  H   UNK A   2      -3.226  -5.454   2.053  0.00  0.00    +0.150 H 
ATOM     35  O   UNK A   2      -5.208  -5.662   4.518  0.00  0.00    -0.274 OA
BRANCH  32  36
ATOM     36  C   UNK A   2      -5.762  -5.492   2.132  0.00  0.00    +0.184 C 
BRANCH  36  38
ATOM     37  C   CYS A   1      -6.428  -3.061   1.933  0.00  0.00    +0.235 C 
ATOM     38  N   UNK A   2      -5.633  -4.134   1.572  0.00  0.00    -0.301 N 
ATOM     39  H   UNK A   2      -4.761  -3.937   1.107  0.00  0.00    +0.150 H 
ATOM     40  O   CYS A   1      -7.435  -3.190   2.621  0.00  0.00    -0.274 OA
BRANCH  37  41
ATOM     41  CA  CYS A   1      -6.167  -1.736   1.171  0.00  0.00    +0.168 C 
BRANCH  41  43
ATOM     42  C   UNK A   0      -7.070  -0.863  -0.962  0.00  0.00    +0.231 C 
ATOM     43  N   CYS A   1      -6.811  -1.926  -0.135  0.00  0.00    -0.302 N 
ATOM     44  H   CYS A   1      -7.398  -2.746  -0.244  0.00  0.00    +0.150 H 
ATOM     45  O   UNK A   0      -6.606   0.262  -0.789  0.00  0.00    -0.274 OA
BRANCH  42  46
ATOM     46  C   UNK A   0      -8.042  -1.200  -2.103  0.00  0.00    +0.200 C 
BRANCH  46  49
ATOM     47  C   UNK A   0      -7.143   0.756  -5.208  0.00  0.00    +0.109 C 
ATOM     48  C   UNK A   0      -7.278  -0.449  -4.314  0.00  0.00    +0.210 C 
ATOM     49  N   UNK A   0      -7.965  -0.201  -3.143  0.00  0.00    -0.307 N 
ATOM     50  H   UNK A   0      -8.034   0.764  -2.835  0.00  0.00    +0.149 H 
ATOM     51  O   UNK A   0      -6.811  -1.545  -4.613  0.00  0.00    -0.276 OA
ENDBRANCH  46  49
ENDBRANCH  42  46
ENDBRANCH  41  43
BRANCH  41  52
ATOM     52  CB  CYS A   1      -4.699  -1.309   1.066  0.00  0.00    +0.097 C 
BRANCH  52  53
ATOM     53  SG  CYS A   1      -3.956  -0.888   2.674  0.00  0.00    -0.176 S 
ATOM     54  HG  CYS A   1      -4.387   0.399   2.698  0.00  0.00    +0.102 H 
ENDBRANCH  52  53
ENDBRANCH  41  52
ENDBRANCH  37  41
ENDBRANCH  36  38
BRANCH  36  55
ATOM     55  C   UNK A   2      -7.189  -5.949   2.479  0.00  0.00    +0.187 C 
BRANCH  55  56
ATOM     56  O   UNK A   2      -7.283  -7.383   2.451  0.00  0.00    -0.393 OA
ATOM     57  H   UNK A   2      -8.077  -7.606   2.974  0.00  0.00    +0.209 H 
ENDBRANCH  55  56
ENDBRANCH  36  55
ENDBRANCH  32  36
ENDBRANCH  31  33
BRANCH  31  58
ATOM     58  C   UNK A   2      -1.895  -4.924   4.824  0.00  0.00    +0.015 C 
ATOM     59  C   UNK A   2      -2.181  -3.539   4.234  0.00  0.00    +0.010 C 
BRANCH  58  60
ATOM     60  C   UNK A   2      -2.441  -5.017   6.260  0.00  0.00    +0.002 C 
ATOM     61  C   UNK A   2      -1.815  -6.157   7.064  0.00  0.00    +0.004 C 
ENDBRANCH  58  60
ENDBRANCH  31  58
ENDBRANCH  27  31
ENDBRANCH  26  28
BRANCH  26  62
ATOM     62  C   UNK A   2       1.077  -6.009   1.019  0.00  0.00    +0.034 C 
BRANCH  62  63
ATOM     63  C   UNK A   2       0.924  -4.475   1.160  0.00  0.00    -0.015 C 
ATOM     64  C   UNK A   2       0.870  -3.749  -0.182  0.00  0.00    +0.007 C 
ATOM     65  C   UNK A   2       2.113  -3.894   1.944  0.00  0.00    +0.007 C 
ENDBRANCH  62  63
ENDBRANCH  26  62
ENDBRANCH  22  26
ENDBRANCH  21  23
BRANCH  21  66
ATOM     66  C   UNK A   2       0.171  -7.887  -4.000  0.00  0.00    +0.032 C 
BRANCH  66  67
ATOM     67  C   UNK A   2       0.074  -9.333  -3.511  0.00  0.00    +0.003 C 
BRANCH  67  68
ATOM     68  C   UNK A   2       1.301  -9.763  -2.698  0.00  0.00    +0.015 C 
BRANCH  68  69
ATOM     69  C   UNK A   2       1.153 -11.162  -2.097  0.00  0.00    +0.077 C 
BRANCH  69  70
ATOM     70  N   UNK A   2       1.106 -12.209  -3.114  0.00  0.00    -0.330 NA
ATOM     71  H   UNK A   2       0.940 -13.114  -2.668  0.00  0.00    +0.118 H 
ATOM     72  H   UNK A   2       0.344 -12.055  -3.768  0.00  0.00    +0.118 H 
ENDBRANCH  69  70
ENDBRANCH  68  69
ENDBRANCH  67  68
ENDBRANCH  66  67
ENDBRANCH  21  66
ENDBRANCH  17  21
ENDBRANCH  16  18
BRANCH  16  73
ATOM     73  C   UNK A   2      -1.818  -2.303  -2.167  0.00  0.00    +0.012 C 
ATOM     74  C   UNK A   2      -1.354  -0.856  -2.053  0.00  0.00    +0.009 C 
ATOM     75  C   UNK A   2      -3.343  -2.310  -2.372  0.00  0.00    +0.009 C 
ENDBRANCH  16  73
ENDBRANCH  12  16
ENDBRANCH  11  13
BRANCH  11  76
ATOM     76  C   UNK A   2      -0.135  -1.168  -7.651  0.00  0.00    +0.012 C 
ATOM     77  C   UNK A   2       1.261  -0.567  -7.479  0.00  0.00    +0.009 C 
ATOM     78  C   UNK A   2      -0.027  -2.652  -7.996  0.00  0.00    +0.009 C 
ENDBRANCH  11  76
ENDBRANCH   7  11
ENDBRANCH   6   8
BRANCH   6  79
ATOM     79  C   UNK A   2       0.343   3.421  -5.697  0.00  0.00    +0.097 C 
BRANCH  79  80
ATOM     80  S   UNK A   2      -0.342   3.932  -7.305  0.00  0.00    -0.176 S 
ATOM     81  H   UNK A   2      -1.003   2.773  -7.579  0.00  0.00    +0.102 H 
ENDBRANCH  79  80
ENDBRANCH   6  79
ENDBRANCH   2   6
ENDBRANCH   1   3
BRANCH   1  82
ATOM     82  C   UNK A   2       0.612   5.464  -1.328  0.00  0.00    +0.234 C 
ATOM     83  N   UNK A   2       1.155   5.830  -0.115  0.00  0.00    -0.302 N 
ATOM     84  H   UNK A   2       0.950   5.215   0.666  0.00  0.00    +0.150 H 
ATOM     85  O   UNK A   2       0.662   6.208  -2.301  0.00  0.00    -0.274 OA
BRANCH  83  86
ATOM     86  C   UNK A   2       1.298   7.256   0.224  0.00  0.00    +0.159 C 
BRANCH  86  87
ATOM     87  C   UNK A   2       1.248   7.300   1.765  0.00  0.00    +0.234 C 
ATOM     88  N   UNK A   2       2.406   6.951   2.435  0.00  0.00    -0.302 N 
ATOM     89  H   UNK A   2       3.269   7.123   1.938  0.00  0.00    +0.150 H 
ATOM     90  O   UNK A   2       0.187   7.454   2.363  0.00  0.00    -0.274 OA
BRANCH  88  91
ATOM     91  C   UNK A   2       2.464   7.126   3.899  0.00  0.00    +0.159 C 
BRANCH  91  92
ATOM     92  C   UNK A   2       1.716   5.987   4.623  0.00  0.00    +0.234 C 
ATOM     93  N   UNK A   2       1.883   4.733   4.043  0.00  0.00    -0.302 N 
ATOM     94  H   UNK A   2       1.987   4.789   3.033  0.00  0.00    +0.150 H 
ATOM     95  O   UNK A   2       1.156   6.150   5.706  0.00  0.00    -0.274 OA
BRANCH  93  96
ATOM     96  C   UNK A   2       1.076   3.642   4.595  0.00  0.00    +0.169 C 
BRANCH  96  97
ATOM     97  C   UNK A   2       1.174   2.450   3.618  0.00  0.00    +0.234 C 
ATOM     98  N   UNK A   2       2.395   1.801   3.580  0.00  0.00    -0.302 N 
ATOM     99  H   UNK A   2       3.124   2.088   4.225  0.00  0.00    +0.150 H 
ATOM    100  O   UNK A   2       0.254   2.147   2.860  0.00  0.00    -0.274 OA
BRANCH  98 101
ATOM    101  C   UNK A   2       2.571   0.476   2.958  0.00  0.00    +0.159 C 
BRANCH 101 102
ATOM    102  C   UNK A   2       3.804   0.497   2.019  0.00  0.00    +0.234 C 
ATOM    103  N   UNK A   2       4.005   1.725   1.411  0.00  0.00    -0.302 N 
ATOM    104  H   UNK A   2       3.534   2.488   1.889  0.00  0.00    +0.150 H 
ATOM    105  O   UNK A   2       4.447  -0.501   1.711  0.00  0.00    -0.274 OA
BRANCH 103 106
ATOM    106  C   UNK A   2       5.291   2.011   0.758  0.00  0.00    +0.159 C 
BRANCH 106 107
ATOM    107  C   UNK A   2       5.583   1.284  -0.578  0.00  0.00    +0.234 C 
ATOM    108  N   UNK A   2       4.444   1.028  -1.336  0.00  0.00    -0.302 N 
ATOM    109  H   UNK A   2       3.756   0.463  -0.837  0.00  0.00    +0.150 H 
ATOM    110  O   UNK A   2       6.726   1.141  -1.006  0.00  0.00    -0.274 OA
BRANCH 108 111
ATOM    111  C   UNK A   2       4.603   0.675  -2.741  0.00  0.00    +0.168 C 
BRANCH 111 112
ATOM    112  C   UNK A   2       4.496  -0.844  -2.943  0.00  0.00    +0.235 C 
ATOM    113  N   UNK A   2       4.745  -1.245  -4.241  0.00  0.00    -0.305 N 
ATOM    114  H   UNK A   2       4.737  -0.537  -4.971  0.00  0.00    +0.149 H 
ATOM    115  O   UNK A   2       4.201  -1.632  -2.045  0.00  0.00    -0.274 OA
BRANCH 113 116
ATOM    116  C   UNK A   2       4.538  -2.622  -4.638  0.00  0.00    +0.199 C 
BRANCH 116 117
ATOM    117  C   UNK A   2       3.051  -2.954  -4.801  0.00  0.00    +0.228 C 
ATOM    118  N   UNK A   2       2.816  -4.200  -5.318  0.00  0.00    -0.328 N 
ATOM    119  H   UNK A   2       1.844  -4.535  -5.212  0.00  0.00    +0.145 H 
ATOM    120  H   UNK A   2       3.533  -4.916  -5.352  0.00  0.00    +0.145 H 
ATOM    121  O   UNK A   2       2.109  -2.215  -4.504  0.00  0.00    -0.274 OA
ENDBRANCH 116 117
ENDBRANCH 113 116
ENDBRANCH 111 112
BRANCH 111 122
ATOM    122  C   UNK A   2       3.540   1.379  -3.591  0.00  0.00    +0.097 C 
BRANCH 122 123
ATOM    123  S   UNK A   2       4.223   1.972  -5.188  0.00  0.00    -0.176 S 
ATOM    124  H   UNK A   2       5.192   2.728  -4.643  0.00  0.00    +0.102 H 
ENDBRANCH 122 123
ENDBRANCH 111 122
ENDBRANCH 108 111
ENDBRANCH 106 107
BRANCH 106 125
ATOM    125  C   UNK A   2       5.435   3.538   0.542  0.00  0.00    +0.041 C 
BRANCH 125 126
ATOM    126  C   UNK A   2       4.369   4.172  -0.357  0.00  0.00    +0.098 C 
BRANCH 126 127
ATOM    127  C   UNK A   2       4.765   4.329  -1.811  0.00  0.00    +0.211 C 
ATOM    128  N   UNK A   2       3.863   5.001  -2.571  0.00  0.00    -0.329 N 
ATOM    129  H   UNK A   2       3.129   5.583  -2.193  0.00  0.00    +0.145 H 
ATOM    130  H   UNK A   2       4.141   5.194  -3.524  0.00  0.00    +0.145 H 
ATOM    131  O   UNK A   2       5.775   3.878  -2.320  0.00  0.00    -0.276 OA
ENDBRANCH 126 127
ENDBRANCH 125 126
ENDBRANCH 106 125
ENDBRANCH 103 106
ENDBRANCH 101 102
BRANCH 101 132
ATOM    132  C   UNK A   2       2.730  -0.604   4.044  0.00  0.00    +0.043 C 
BRANCH 132 133
ATOM    133  C   UNK A   2       1.410  -0.980   4.721  0.00  0.00    +0.123 C 
BRANCH 133 134
ATOM    134  C   UNK A   2       1.636  -1.963   5.852  0.00  0.00    +0.305 C 
ATOM    135  O   UNK A   2       2.697  -2.264   6.367  0.00  0.00    -0.251 OA
BRANCH 134 136
ATOM    136  O   UNK A   2       0.478  -2.475   6.301  0.00  0.00    -0.481 OA
ATOM    137  H   UNK A   2       0.732  -3.101   7.015  0.00  0.00    +0.295 H 
ENDBRANCH 134 136
ENDBRANCH 133 134
ENDBRANCH 132 133
ENDBRANCH 101 132
ENDBRANCH  98 101
ENDBRANCH  96  97
BRANCH  96 138
ATOM    138  C   UNK A   2       1.521   3.230   6.010  0.00  0.00    +0.152 C 
BRANCH 138 139
ATOM    139  C   UNK A   2       0.451   3.398   7.037  0.00  0.00    +0.307 C 
ATOM    140  O   UNK A   2       0.632   3.822   8.170  0.00  0.00    -0.251 OA
BRANCH 139 141
ATOM    141  O   UNK A   2      -0.742   2.898   6.654  0.00  0.00    -0.481 OA
ATOM    142  H   UNK A   2      -1.327   3.048   7.431  0.00  0.00    +0.295 H 
ENDBRANCH 139 141
ENDBRANCH 138 139
ENDBRANCH  96 138
ENDBRANCH  93  96
ENDBRANCH  91  92
BRANCH  91 143
ATOM    143  C   UNK A   2       3.916   7.212   4.370  0.00  0.00    +0.041 C 
BRANCH 143 144
ATOM    144  C   UNK A   2       4.065   7.239   5.902  0.00  0.00    +0.098 C 
BRANCH 144 145
ATOM    145  C   UNK A   2       5.284   8.012   6.344  0.00  0.00    +0.211 C 
ATOM    146  N   UNK A   2       5.263   8.385   7.658  0.00  0.00    -0.329 N 
ATOM    147  H   UNK A   2       6.076   8.853   8.018  0.00  0.00    +0.145 H 
ATOM    148  H   UNK A   2       4.577   8.015   8.314  0.00  0.00    +0.145 H 
ATOM    149  O   UNK A   2       6.243   8.276   5.630  0.00  0.00    -0.276 OA
ENDBRANCH 144 145
ENDBRANCH 143 144
ENDBRANCH  91 143
ENDBRANCH  88  91
ENDBRANCH  86  87
BRANCH  86 150
ATOM    150  C   UNK A   2       2.524   7.922  -0.438  0.00  0.00    +0.034 C 
BRANCH 150 151
ATOM    151  C   UNK A   2       2.646   9.460  -0.318  0.00  0.00    -0.015 C 
ATOM    152  C   UNK A   2       3.204   9.925   1.024  0.00  0.00    +0.007 C 
ATOM    153  C   UNK A   2       1.338  10.194  -0.612  0.00  0.00    +0.007 C 
ENDBRANCH 150 151
ENDBRANCH  86 150
ENDBRANCH  83  86
ENDBRANCH   1  82
BRANCH   1 154
ATOM    154  C   UNK A   2      -1.236   4.059  -0.371  0.00  0.00    +0.035 C 
BRANCH 154 155
ATOM    155  C   UNK A   2      -2.158   2.848  -0.504  0.00  0.00    +0.039 C 
BRANCH 155 156
ATOM    156  C   UNK A   2      -2.883   2.466   0.793  0.00  0.00    +0.196 C 
BRANCH 156 157
ATOM    157  N   UNK A   2      -3.559   3.603   1.405  0.00  0.00    -0.276 N 
ATOM    158  H   UNK A   2      -2.974   4.433   1.429  0.00  0.00    +0.258 H 
ATOM    159  C   UNK A   2      -4.225   3.404   2.576  0.00  0.00    +0.376 C 
ATOM    160  N   UNK A   2      -4.245   4.523   3.329  0.00  0.00    -0.289 N 
ATOM    161  H   UNK A   2      -4.491   5.358   2.809  0.00  0.00    +0.255 H 
ATOM    162  H   UNK A   2      -4.824   4.450   4.159  0.00  0.00    +0.255 H 
ATOM    163  N   UNK A   2      -4.708   2.275   2.937  0.00  0.00    -0.130 NA
ATOM    164  H   UNK A   2      -5.094   2.344   3.888  0.00  0.00    +0.306 H 
ENDBRANCH 156 157
ENDBRANCH 155 156
ENDBRANCH 154 155
ENDBRANCH   1 154
TORSDOF 72
