REMARK  Name = /mnt/d/code/AA/temporary/peptide_9a02873a.pdb
REMARK  78 active torsions:
REMARK  status: ('A' for Active; 'I' for Inactive)
REMARK    1  A    between atoms: _1  and  _2
REMARK    2  A    between atoms: _4  and  _5
REMARK    3  A    between atoms: _5  and  _6
REMARK    4  A    between atoms: _8  and  _9
REMARK    5  A    between atoms: _9  and  _10
REMARK    6  A    between atoms: _9  and  _12
REMARK    7  A    between atoms: _10  and  _11
REMARK    8  A    between atoms: _14  and  _15
REMARK    9  A    between atoms: _15  and  _16
REMARK   10  A    between atoms: _15  and  _20
REMARK   11  A    between atoms: _16  and  _17
REMARK   12  A    between atoms: _22  and  _23
REMARK   13  A    between atoms: _23  and  _24
REMARK   14  A    between atoms: _23  and  _28
REMARK   15  A    between atoms: _24  and  _25
REMARK   16  A    between atoms: _25  and  _26
REMARK   17  A    between atoms: _25  and  _27
REMARK   18  A    between atoms: _30  and  _31
REMARK   19  A    between atoms: _31  and  _32
REMARK   20  A    between atoms: _31  and  _37
REMARK   21  A    between atoms: _32  and  _33
REMARK   22  A    between atoms: _33  and  _34
REMARK   23  A    between atoms: _34  and  _36
REMARK   24  A    between atoms: _39  and  _40
REMARK   25  A    between atoms: _40  and  _41
REMARK   26  A    between atoms: _40  and  _48
REMARK   27  A    between atoms: _41  and  _42
REMARK   28  A    between atoms: _50  and  _51
REMARK   29  A    between atoms: _51  and  _52
REMARK   30  A    between atoms: _51  and  _57
REMARK   31  A    between atoms: _52  and  _53
REMARK   32  A    between atoms: _53  and  _54
REMARK   33  A    between atoms: _54  and  _55
REMARK   34  A    between atoms: _55  and  _56
REMARK   35  A    between atoms: _59  and  _60
REMARK   36  A    between atoms: _60  and  _61
REMARK   37  A    between atoms: _60  and  _65
REMARK   38  A    between atoms: _61  and  _62
REMARK   39  A    between atoms: _67  and  _68
REMARK   40  A    between atoms: _68  and  _69
REMARK   41  A    between atoms: _68  and  _71
REMARK   42  A    between atoms: _69  and  _70
REMARK   43  A    between atoms: _73  and  _74
REMARK   44  A    between atoms: _74  and  _75
REMARK   45  A    between atoms: _74  and  _79
REMARK   46  A    between atoms: _75  and  _76
REMARK   47  A    between atoms: _76  and  _77
REMARK   48  A    between atoms: _76  and  _78
REMARK   49  A    between atoms: _81  and  _82
REMARK   50  A    between atoms: _82  and  _83
REMARK   51  A    between atoms: _82  and  _87
REMARK   52  A    between atoms: _83  and  _84
REMARK   53  A    between atoms: _84  and  _85
REMARK   54  A    between atoms: _85  and  _86
REMARK   55  A    between atoms: _89  and  _90
REMARK   56  A    between atoms: _90  and  _91
REMARK   57  A    between atoms: _93  and  _94
REMARK   58  A    between atoms: _94  and  _95
REMARK   59  A    between atoms: _94  and  _99
REMARK   60  A    between atoms: _95  and  _96
REMARK   61  A    between atoms: _96  and  _98
REMARK   62  A    between atoms: _101  and  _102
REMARK   63  A    between atoms: _102  and  _103
REMARK   64  A    between atoms: _102  and  _105
REMARK   65  A    between atoms: _103  and  _104
REMARK   66  A    between atoms: _107  and  _108
REMARK   67  A    between atoms: _108  and  _109
REMARK   68  A    between atoms: _108  and  _114
REMARK   69  A    between atoms: _109  and  _110
REMARK   70  A    between atoms: _110  and  _111
REMARK   71  A    between atoms: _111  and  _112
REMARK   72  A    between atoms: _112  and  _113
REMARK   73  A    between atoms: _116  and  _117
REMARK   74  A    between atoms: _117  and  _118
REMARK   75  A    between atoms: _117  and  _120
REMARK   76  A    between atoms: _118  and  _119
REMARK   77  A    between atoms: _122  and  _123
REMARK   78  A    between atoms: _123  and  _124
REMARK                            x       y       z     vdW  Elec       q    Type
REMARK                         _______ _______ _______ _____ _____    ______ ____
ROOT
ATOM      1  CA  ASN A   7       0.147   0.211  -0.442  0.00  0.00    +0.168 C 
ENDROOT
BRANCH   1   2
ATOM      2  C   ASN A   7      -1.168   0.156   0.367  0.00  0.00    +0.234 C 
ATOM      3  N   CYS A   8      -1.103  -0.600   1.515  0.00  0.00    -0.302 N 
ATOM      4  H   CYS A   8      -0.359  -1.303   1.559  0.00  0.00    +0.150 H 
ATOM      5  O   ASN A   7      -2.230   0.627  -0.043  0.00  0.00    -0.274 OA
BRANCH   3   6
ATOM      6  CA  CYS A   8      -2.275  -0.846   2.357  0.00  0.00    +0.168 C 
BRANCH   6   7
ATOM      7  C   CYS A   8      -3.011  -2.081   1.804  0.00  0.00    +0.235 C 
ATOM      8  N   LEU A   9      -3.640  -1.861   0.596  0.00  0.00    -0.302 N 
ATOM      9  H   LEU A   9      -3.719  -0.896   0.271  0.00  0.00    +0.150 H 
ATOM     10  O   CYS A   8      -3.005  -3.179   2.353  0.00  0.00    -0.274 OA
BRANCH   8  11
ATOM     11  CA  LEU A   9      -4.487  -2.872  -0.014  0.00  0.00    +0.159 C 
BRANCH  11  12
ATOM     12  C   LEU A   9      -5.943  -2.667   0.459  0.00  0.00    +0.234 C 
ATOM     13  N   MET A  10      -6.629  -3.845   0.686  0.00  0.00    -0.302 N 
ATOM     14  H   MET A  10      -6.278  -4.670   0.210  0.00  0.00    +0.150 H 
ATOM     15  O   LEU A   9      -6.469  -1.561   0.581  0.00  0.00    -0.274 OA
BRANCH  13  16
ATOM     16  CA  MET A  10      -8.068  -3.839   0.954  0.00  0.00    +0.160 C 
BRANCH  16  17
ATOM     17  C   MET A  10      -8.760  -3.886  -0.426  0.00  0.00    +0.234 C 
ATOM     18  N   GLY A  11     -10.060  -3.444  -0.453  0.00  0.00    -0.305 N 
ATOM     19  H   GLY A  11     -10.449  -2.995   0.379  0.00  0.00    +0.149 H 
ATOM     20  O   MET A  10      -8.190  -4.302  -1.435  0.00  0.00    -0.274 OA
BRANCH  18  21
ATOM     21  CA  GLY A  11     -10.867  -3.468  -1.674  0.00  0.00    +0.200 C 
BRANCH  21  22
ATOM     22  C   GLY A  11     -10.989  -2.080  -2.312  0.00  0.00    +0.231 C 
ATOM     23  N   ASP A  12      -9.846  -1.309  -2.241  0.00  0.00    -0.302 N 
ATOM     24  H   ASP A  12      -9.026  -1.706  -1.790  0.00  0.00    +0.150 H 
ATOM     25  O   GLY A  11     -12.017  -1.700  -2.862  0.00  0.00    -0.274 OA
BRANCH  23  26
ATOM     26  CA  ASP A  12      -9.875   0.139  -2.535  0.00  0.00    +0.169 C 
BRANCH  26  27
ATOM     27  C   ASP A  12     -10.407   0.896  -1.289  0.00  0.00    +0.235 C 
ATOM     28  N   UNK A  13     -10.442   0.139  -0.144  0.00  0.00    -0.301 N 
ATOM     29  H   UNK A  13     -10.321  -0.857  -0.262  0.00  0.00    +0.150 H 
ATOM     30  O   ASP A  12     -10.725   2.083  -1.297  0.00  0.00    -0.274 OA
BRANCH  28  31
ATOM     31  C   UNK A  13     -11.074   0.546   1.105  0.00  0.00    +0.184 C 
BRANCH  31  32
ATOM     32  C   UNK A  13     -12.599   0.452   0.930  0.00  0.00    +0.236 C 
ATOM     33  N   UNK A  13     -13.148   1.443   0.148  0.00  0.00    -0.302 N 
ATOM     34  H   UNK A  13     -12.525   2.112  -0.308  0.00  0.00    +0.150 H 
ATOM     35  O   UNK A  13     -13.263  -0.477   1.398  0.00  0.00    -0.274 OA
BRANCH  33  36
ATOM     36  C   UNK A  13     -14.559   1.421  -0.191  0.00  0.00    +0.159 C 
BRANCH  36  37
ATOM     37  C   UNK A  13     -15.413   1.822   1.029  0.00  0.00    +0.234 C 
ATOM     38  N   UNK A  13     -16.719   1.384   0.960  0.00  0.00    -0.302 N 
ATOM     39  H   UNK A  13     -16.923   0.608   0.338  0.00  0.00    +0.150 H 
ATOM     40  O   UNK A  13     -14.996   2.496   1.968  0.00  0.00    -0.274 OA
BRANCH  38  41
ATOM     41  C   UNK A  13     -17.634   1.552   2.095  0.00  0.00    +0.168 C 
BRANCH  41  42
ATOM     42  C   UNK A  13     -19.097   1.426   1.624  0.00  0.00    +0.235 C 
ATOM     43  N   UNK A  13     -19.284   1.806   0.312  0.00  0.00    -0.305 N 
ATOM     44  H   UNK A  13     -18.522   2.283  -0.168  0.00  0.00    +0.149 H 
ATOM     45  O   UNK A  13     -20.032   1.139   2.364  0.00  0.00    -0.274 OA
BRANCH  43  46
ATOM     46  C   UNK A  13     -20.599   1.895  -0.287  0.00  0.00    +0.199 C 
BRANCH  46  47
ATOM     47  C   UNK A  13     -20.478   2.619  -1.625  0.00  0.00    +0.228 C 
ATOM     48  N   UNK A  13     -21.625   2.696  -2.359  0.00  0.00    -0.328 N 
ATOM     49  H   UNK A  13     -21.574   3.136  -3.269  0.00  0.00    +0.145 H 
ATOM     50  H   UNK A  13     -22.475   2.211  -2.107  0.00  0.00    +0.145 H 
ATOM     51  O   UNK A  13     -19.431   3.122  -2.025  0.00  0.00    -0.274 OA
ENDBRANCH  46  47
ENDBRANCH  43  46
ENDBRANCH  41  42
BRANCH  41  52
ATOM     52  C   UNK A  13     -17.326   0.619   3.275  0.00  0.00    +0.097 C 
BRANCH  52  53
ATOM     53  S   UNK A  13     -17.103  -1.127   2.779  0.00  0.00    -0.176 S 
ATOM     54  H   UNK A  13     -15.840  -0.999   2.336  0.00  0.00    +0.102 H 
ENDBRANCH  52  53
ENDBRANCH  41  52
ENDBRANCH  38  41
ENDBRANCH  36  37
BRANCH  36  55
ATOM     55  C   UNK A  13     -14.884   2.240  -1.450  0.00  0.00    +0.032 C 
BRANCH  55  56
ATOM     56  C   UNK A  13     -14.655   3.756  -1.361  0.00  0.00    +0.003 C 
BRANCH  56  57
ATOM     57  C   UNK A  13     -15.852   4.525  -0.790  0.00  0.00    +0.015 C 
BRANCH  57  58
ATOM     58  C   UNK A  13     -15.697   6.044  -0.894  0.00  0.00    +0.077 C 
BRANCH  58  59
ATOM     59  N   UNK A  13     -14.539   6.530  -0.154  0.00  0.00    -0.330 NA
ATOM     60  H   UNK A  13     -14.560   7.548  -0.121  0.00  0.00    +0.118 H 
ATOM     61  H   UNK A  13     -14.589   6.209   0.812  0.00  0.00    +0.118 H 
ENDBRANCH  58  59
ENDBRANCH  57  58
ENDBRANCH  56  57
ENDBRANCH  55  56
ENDBRANCH  36  55
ENDBRANCH  33  36
ENDBRANCH  31  32
BRANCH  31  62
ATOM     62  C   UNK A  13     -10.632  -0.441   2.200  0.00  0.00    +0.187 C 
BRANCH  62  63
ATOM     63  O   UNK A  13     -10.916  -1.802   1.783  0.00  0.00    -0.393 OA
ATOM     64  H   UNK A  13     -11.900  -1.858   1.850  0.00  0.00    +0.209 H 
ENDBRANCH  62  63
ENDBRANCH  31  62
ENDBRANCH  28  31
ENDBRANCH  26  27
BRANCH  26  65
ATOM     65  CB  ASP A  12      -8.476   0.641  -2.858  0.00  0.00    +0.152 C 
BRANCH  65  66
ATOM     66  CG  ASP A  12      -8.554   1.995  -3.498  0.00  0.00    +0.307 C 
ATOM     67  OD1 ASP A  12      -9.283   2.321  -4.418  0.00  0.00    -0.251 OA
BRANCH  66  68
ATOM     68  OD2 ASP A  12      -7.677   2.869  -2.972  0.00  0.00    -0.481 OA
ATOM     69  HD2 ASP A  12      -7.865   3.709  -3.441  0.00  0.00    +0.295 H 
ENDBRANCH  66  68
ENDBRANCH  65  66
ENDBRANCH  26  65
ENDBRANCH  23  26
ENDBRANCH  21  22
ENDBRANCH  18  21
ENDBRANCH  16  17
BRANCH  16  70
ATOM     70  CB  MET A  10      -8.438  -5.059   1.809  0.00  0.00    +0.042 C 
BRANCH  70  71
ATOM     71  CG  MET A  10      -9.814  -4.930   2.458  0.00  0.00    +0.071 C 
BRANCH  71  72
ATOM     72  SD  MET A  10     -10.153  -6.284   3.631  0.00  0.00    -0.164 S 
ATOM     73  CE  MET A  10     -10.447  -7.641   2.470  0.00  0.00    +0.084 C 
ENDBRANCH  71  72
ENDBRANCH  70  71
ENDBRANCH  16  70
ENDBRANCH  13  16
ENDBRANCH  11  12
BRANCH  11  74
ATOM     74  CB  LEU A   9      -4.439  -2.794  -1.545  0.00  0.00    +0.034 C 
BRANCH  74  75
ATOM     75  CG  LEU A   9      -3.043  -3.042  -2.151  0.00  0.00    -0.015 C 
ATOM     76  CD2 LEU A   9      -2.540  -4.461  -1.884  0.00  0.00    +0.007 C 
ATOM     77  CD1 LEU A   9      -3.083  -2.780  -3.659  0.00  0.00    +0.007 C 
ENDBRANCH  74  75
ENDBRANCH  11  74
ENDBRANCH   8  11
ENDBRANCH   6   7
BRANCH   6  78
ATOM     78  CB  CYS A   8      -1.895  -1.084   3.823  0.00  0.00    +0.097 C 
BRANCH  78  79
ATOM     79  SG  CYS A   8      -1.115   0.377   4.597  0.00  0.00    -0.176 S 
ATOM     80  HG  CYS A   8      -2.095   1.248   4.313  0.00  0.00    +0.102 H 
ENDBRANCH  78  79
ENDBRANCH   6  78
ENDBRANCH   3   6
ENDBRANCH   1   2
BRANCH   1  82
ATOM     81  C   LYS A   6       2.427  -0.519   0.291  0.00  0.00    +0.234 C 
ATOM     82  N   ASN A   7       1.327   0.293   0.425  0.00  0.00    -0.302 N 
ATOM     83  H   ASN A   7       1.375   1.114   1.027  0.00  0.00    +0.150 H 
ATOM     84  O   LYS A   6       2.451  -1.462  -0.499  0.00  0.00    -0.274 OA
BRANCH  81  85
ATOM     85  CA  LYS A   6       3.617  -0.167   1.225  0.00  0.00    +0.159 C 
BRANCH  85  87
ATOM     86  C   PHE A   5       5.780  -0.488   0.049  0.00  0.00    +0.234 C 
ATOM     87  N   LYS A   6       4.797  -0.966   0.884  0.00  0.00    -0.302 N 
ATOM     88  H   LYS A   6       4.711  -1.972   0.972  0.00  0.00    +0.150 H 
ATOM     89  O   PHE A   5       5.763   0.646  -0.433  0.00  0.00    -0.274 OA
BRANCH  86  90
ATOM     90  CA  PHE A   5       6.954  -1.455  -0.215  0.00  0.00    +0.163 C 
BRANCH  90  92
ATOM     91  C   GLU A   4       9.369  -1.008  -0.589  0.00  0.00    +0.234 C 
ATOM     92  N   PHE A   5       8.054  -0.627  -0.724  0.00  0.00    -0.302 N 
ATOM     93  H   PHE A   5       7.802   0.330  -0.948  0.00  0.00    +0.150 H 
ATOM     94  O   GLU A   4       9.675  -2.135  -0.194  0.00  0.00    -0.274 OA
BRANCH  91  95
ATOM     95  CA  GLU A   4      10.431   0.011  -1.089  0.00  0.00    +0.159 C 
BRANCH  95  97
ATOM     96  C   LEU A   3      12.233  -0.362   0.603  0.00  0.00    +0.234 C 
ATOM     97  N   GLU A   4      11.765  -0.451  -0.688  0.00  0.00    -0.302 N 
ATOM     98  H   GLU A   4      12.187  -1.144  -1.290  0.00  0.00    +0.150 H 
ATOM     99  O   LEU A   3      11.590   0.196   1.496  0.00  0.00    -0.274 OA
BRANCH  96 100
ATOM    100  CA  LEU A   3      13.681  -0.854   0.879  0.00  0.00    +0.159 C 
BRANCH 100 102
ATOM    101  C   ASN A   2      14.704   1.391   0.565  0.00  0.00    +0.234 C 
ATOM    102  N   LEU A   3      14.398   0.322   1.384  0.00  0.00    -0.302 N 
ATOM    103  H   LEU A   3      14.234   0.523   2.364  0.00  0.00    +0.150 H 
ATOM    104  O   ASN A   2      14.621   1.343  -0.662  0.00  0.00    -0.274 OA
BRANCH 101 105
ATOM    105  CA  ASN A   2      15.024   2.707   1.314  0.00  0.00    +0.168 C 
BRANCH 105 107
ATOM    106  C   CYS A   1      16.107   4.146  -0.443  0.00  0.00    +0.235 C 
ATOM    107  N   ASN A   2      15.022   3.830   0.356  0.00  0.00    -0.302 N 
ATOM    108  H   ASN A   2      14.107   4.008  -0.050  0.00  0.00    +0.150 H 
ATOM    109  O   CYS A   1      17.218   3.645  -0.274  0.00  0.00    -0.274 OA
BRANCH 106 110
ATOM    110  CA  CYS A   1      15.794   5.131  -1.601  0.00  0.00    +0.168 C 
BRANCH 110 112
ATOM    111  C   UNK A   0      18.058   6.102  -1.955  0.00  0.00    +0.231 C 
ATOM    112  N   CYS A   1      16.993   5.349  -2.410  0.00  0.00    -0.302 N 
ATOM    113  H   CYS A   1      17.259   4.584  -3.033  0.00  0.00    +0.150 H 
ATOM    114  O   UNK A   0      18.041   6.764  -0.923  0.00  0.00    -0.274 OA
BRANCH 111 115
ATOM    115  C   UNK A   0      19.316   5.961  -2.814  0.00  0.00    +0.200 C 
BRANCH 115 118
ATOM    116  C   UNK A   0      20.357   2.350  -2.356  0.00  0.00    +0.109 C 
ATOM    117  C   UNK A   0      19.612   3.528  -2.919  0.00  0.00    +0.210 C 
ATOM    118  N   UNK A   0      20.025   4.750  -2.438  0.00  0.00    -0.307 N 
ATOM    119  H   UNK A   0      20.520   4.766  -1.556  0.00  0.00    +0.149 H 
ATOM    120  O   UNK A   0      18.692   3.408  -3.724  0.00  0.00    -0.276 OA
ENDBRANCH 115 118
ENDBRANCH 111 115
ENDBRANCH 110 112
BRANCH 110 121
ATOM    121  CB  CYS A   1      15.092   6.410  -1.113  0.00  0.00    +0.097 C 
BRANCH 121 122
ATOM    122  SG  CYS A   1      14.551   7.497  -2.481  0.00  0.00    -0.176 S 
ATOM    123  HG  CYS A   1      14.090   6.532  -3.285  0.00  0.00    +0.102 H 
ENDBRANCH 121 122
ENDBRANCH 110 121
ENDBRANCH 106 110
ENDBRANCH 105 107
BRANCH 105 124
ATOM    124  CB  ASN A   2      16.187   2.677   2.303  0.00  0.00    +0.127 C 
BRANCH 124 125
ATOM    125  CG  ASN A   2      17.155   1.525   2.176  0.00  0.00    +0.213 C 
ATOM    126  ND2 ASN A   2      17.740   1.355   0.962  0.00  0.00    -0.329 N 
ATOM    127 HD21 ASN A   2      17.780   2.156   0.330  0.00  0.00    +0.145 H 
ATOM    128 HD22 ASN A   2      18.508   0.699   0.913  0.00  0.00    +0.145 H 
ATOM    129  OD1 ASN A   2      17.447   0.806   3.126  0.00  0.00    -0.276 OA
ENDBRANCH 124 125
ENDBRANCH 105 124
ENDBRANCH 101 105
ENDBRANCH 100 102
BRANCH 100 130
ATOM    130  CB  LEU A   3      14.394  -1.621  -0.244  0.00  0.00    +0.034 C 
BRANCH 130 131
ATOM    131  CG  LEU A   3      15.833  -2.070   0.087  0.00  0.00    -0.015 C 
ATOM    132  CD2 LEU A   3      16.459  -2.743  -1.139  0.00  0.00    +0.007 C 
ATOM    133  CD1 LEU A   3      15.891  -3.020   1.285  0.00  0.00    +0.007 C 
ENDBRANCH 130 131
ENDBRANCH 100 130
ENDBRANCH  96 100
ENDBRANCH  95  97
BRANCH  95 134
ATOM    134  CB  GLU A   4      10.137   1.475  -0.720  0.00  0.00    +0.043 C 
BRANCH 134 135
ATOM    135  CG  GLU A   4      11.279   2.427  -1.079  0.00  0.00    +0.123 C 
BRANCH 135 136
ATOM    136  CD  GLU A   4      10.953   3.844  -0.713  0.00  0.00    +0.305 C 
ATOM    137  OE1 GLU A   4       9.852   4.362  -0.691  0.00  0.00    -0.251 OA
BRANCH 136 138
ATOM    138  OE2 GLU A   4      12.057   4.569  -0.417  0.00  0.00    -0.481 OA
ATOM    139  HE2 GLU A   4      11.668   5.450  -0.211  0.00  0.00    +0.295 H 
ENDBRANCH 136 138
ENDBRANCH 135 136
ENDBRANCH 134 135
ENDBRANCH  95 134
ENDBRANCH  91  95
ENDBRANCH  90  92
BRANCH  90 140
ATOM    140  CB  PHE A   5       6.579  -2.558  -1.218  0.00  0.00    +0.067 C 
BRANCH 140 141
ATOM    141  CG  PHE A   5       5.793  -3.697  -0.608  0.00  0.00    -0.045 A 
ATOM    142  CD2 PHE A   5       6.377  -4.527   0.358  0.00  0.00    +0.004 A 
ATOM    143  CE2 PHE A   5       5.644  -5.569   0.928  0.00  0.00    +0.000 A 
ATOM    144  CZ  PHE A   5       4.329  -5.801   0.529  0.00  0.00    +0.000 A 
ATOM    145  CE1 PHE A   5       3.746  -4.989  -0.441  0.00  0.00    +0.000 A 
ATOM    146  CD1 PHE A   5       4.472  -3.942  -1.006  0.00  0.00    +0.004 A 
ENDBRANCH 140 141
ENDBRANCH  90 140
ENDBRANCH  86  90
ENDBRANCH  85  87
BRANCH  85 147
ATOM    147  CB  LYS A   6       3.319  -0.275   2.735  0.00  0.00    +0.032 C 
BRANCH 147 148
ATOM    148  CG  LYS A   6       2.265  -1.289   3.186  0.00  0.00    +0.003 C 
BRANCH 148 149
ATOM    149  CD  LYS A   6       2.534  -2.745   2.798  0.00  0.00    +0.015 C 
BRANCH 149 150
ATOM    150  CE  LYS A   6       1.246  -3.569   2.705  0.00  0.00    +0.077 C 
BRANCH 150 151
ATOM    151  NZ  LYS A   6       0.409  -3.107   1.592  0.00  0.00    -0.330 NA
ATOM    152  HZ1 LYS A   6       0.950  -3.186   0.726  0.00  0.00    +0.118 H 
ATOM    153  HZ2 LYS A   6      -0.374  -3.758   1.490  0.00  0.00    +0.118 H 
ENDBRANCH 150 151
ENDBRANCH 149 150
ENDBRANCH 148 149
ENDBRANCH 147 148
ENDBRANCH  85 147
ENDBRANCH  81  85
ENDBRANCH   1  82
BRANCH   1 154
ATOM    154  CB  ASN A   7       0.108   1.356  -1.457  0.00  0.00    +0.127 C 
BRANCH 154 155
ATOM    155  CG  ASN A   7       0.049   2.702  -0.769  0.00  0.00    +0.213 C 
ATOM    156  ND2 ASN A   7      -0.436   3.723  -1.532  0.00  0.00    -0.329 N 
ATOM    157 HD21 ASN A   7      -0.556   4.610  -1.054  0.00  0.00    +0.145 H 
ATOM    158 HD22 ASN A   7      -1.054   3.540  -2.313  0.00  0.00    +0.145 H 
ATOM    159  OD1 ASN A   7       0.454   2.910   0.370  0.00  0.00    -0.276 OA
ENDBRANCH 154 155
ENDBRANCH   1 154
TORSDOF 72
